<?xml version="1.0" encoding="UTF-8"?>

<!-- generated on 2026-02-06T15:09:37.929614+05:30 by Eclipse SUMO GUI 1.26.0
<sumoConfiguration xmlns:xsi="http://www.w3.org/2001/XMLSchema-instance" xsi:noNamespaceSchemaLocation="http://sumo.dlr.de/xsd/sumoConfiguration.xsd">

    <input>
        <net-file value="osm.net.xml.gz"/>
        <route-files value="osm.motorcycle.trips.xml,osm.passenger.trips.xml"/>
        <additional-files value="osm.poly.xml.gz,output.add.xml"/>
    </input>

    <output>
        <tripinfo-output value="tripinfos.xml"/>
        <statistic-output value="stats.xml"/>
    </output>

    <processing>
        <ignore-route-errors value="true"/>
        <tls.actuated.jam-threshold value="30"/>
    </processing>

    <routing>
        <device.rerouting.adaptation-steps value="18"/>
        <device.rerouting.adaptation-interval value="10"/>
    </routing>

    <report>
        <verbose value="true"/>
        <duration-log.statistics value="true"/>
        <no-step-log value="true"/>
    </report>

    <traci_server>
        <remote-port value="54956"/>
    </traci_server>

    <gui_only>
        <gui-settings-file value="osm.view.xml"/>
        <start value="true"/>
    </gui_only>

</sumoConfiguration>
-->

<meandata xmlns:xsi="http://www.w3.org/2001/XMLSchema-instance" xsi:noNamespaceSchemaLocation="http://sumo.dlr.de/xsd/meandata_file.xsd">
    <interval begin="0.00" end="1000.00" id="wizard_example">
        <edge id="-1036532020" sampledSeconds="5.22" traveltime="4.96" overlapTraveltime="5.60" density="0.14" overlapDensity="0.16" laneDensity="0.14" occupancy="0.03" waitingTime="0.00" timeLoss="2.32" speed="6.07" speedRelative="0.44" departed="1" arrived="0" entered="0" left="1" laneChangedFrom="0" laneChangedTo="0" flow="3.34"/>
        <edge id="-1036532021#0" sampledSeconds="3.25" traveltime="2.90" overlapTraveltime="3.25" density="0.07" overlapDensity="0.08" laneDensity="0.07" occupancy="0.04" waitingTime="0.00" timeLoss="0.11" speed="14.16" speedRelative="1.02" departed="0" arrived="1" entered="1" left="0" laneChangedFrom="0" laneChangedTo="0" flow="3.60"/>
        <edge id="-1036532021#1" sampledSeconds="5.99" traveltime="5.63" overlapTraveltime="5.99" density="0.08" overlapDensity="0.09" laneDensity="0.08" occupancy="0.04" waitingTime="0.00" timeLoss="0.87" speed="12.50" speedRelative="0.90" departed="0" arrived="0" entered="1" left="1" laneChangedFrom="0" laneChangedTo="0" flow="3.60"/>
        <edge id="-1094403659" sampledSeconds="0.00" departed="0" arrived="0" entered="0" left="0" laneChangedFrom="0" laneChangedTo="0"/>
        <edge id="-1094403660" sampledSeconds="3.24" traveltime="0.03" overlapTraveltime="0.90" density="0.40" overlapDensity="16.22" laneDensity="0.40" occupancy="0.31" waitingTime="0.00" timeLoss="0.96" speed="5.49" speedRelative="0.40" departed="1" arrived="0" entered="3" left="4" laneChangedFrom="0" laneChangedTo="0" flow="10.80"/>
        <edge id="-1124351839" sampledSeconds="0.00" departed="0" arrived="0" entered="0" left="0" laneChangedFrom="0" laneChangedTo="0"/>
        <edge id="-112869287" sampledSeconds="10.49" traveltime="10.47" overlapTraveltime="10.87" density="0.08" overlapDensity="0.08" laneDensity="0.08" occupancy="0.04" waitingTime="0.00" timeLoss="1.21" speed="12.49" speedRelative="0.90" departed="0" arrived="1" entered="1" left="0" laneChangedFrom="0" laneChangedTo="0" flow="3.60"/>
        <edge id="-112869288" sampledSeconds="16.64" traveltime="5.38" overlapTraveltime="5.62" density="0.27" overlapDensity="0.28" laneDensity="0.27" occupancy="0.08" waitingTime="0.00" timeLoss="3.05" speed="11.28" speedRelative="0.81" departed="0" arrived="3" entered="3" left="0" laneChangedFrom="0" laneChangedTo="0" flow="10.80"/>
        <edge id="-112869289" sampledSeconds="22.15" traveltime="7.01" overlapTraveltime="7.38" density="0.27" overlapDensity="0.28" laneDensity="0.27" occupancy="0.13" waitingTime="0.00" timeLoss="4.38" speed="11.22" speedRelative="0.81" departed="0" arrived="3" entered="3" left="0" laneChangedFrom="0" laneChangedTo="0" flow="10.80"/>
        <edge id="-112869290#0" sampledSeconds="66.23" traveltime="21.33" overlapTraveltime="22.08" density="0.26" overlapDensity="0.27" laneDensity="0.26" occupancy="0.13" waitingTime="0.00" timeLoss="7.47" speed="11.35" speedRelative="0.82" departed="0" arrived="0" entered="3" left="3" laneChangedFrom="0" laneChangedTo="0" flow="10.80"/>
        <edge id="-112869290#1" sampledSeconds="10.22" traveltime="3.57" overlapTraveltime="4.10" density="0.50" overlapDensity="0.59" laneDensity="0.50" occupancy="0.23" waitingTime="0.00" timeLoss="5.66" speed="5.28" speedRelative="0.38" departed="2" arrived="0" entered="1" left="3" laneChangedFrom="0" laneChangedTo="0" flow="8.68"/>
        <edge id="-112869291" sampledSeconds="11.65" traveltime="11.47" overlapTraveltime="11.65" density="0.09" overlapDensity="0.09" laneDensity="0.09" occupancy="0.02" waitingTime="0.00" timeLoss="1.63" speed="11.57" speedRelative="0.83" departed="0" arrived="1" entered="1" left="0" laneChangedFrom="0" laneChangedTo="0" flow="3.60"/>
        <edge id="-112869293#0" sampledSeconds="23.61" traveltime="11.48" overlapTraveltime="11.89" density="0.17" overlapDensity="0.17" laneDensity="0.17" occupancy="0.08" waitingTime="0.00" timeLoss="1.38" speed="12.09" speedRelative="0.87" departed="0" arrived="2" entered="2" left="0" laneChangedFrom="0" laneChangedTo="0" flow="7.20"/>
        <edge id="-112869293#1" sampledSeconds="60.66" traveltime="11.55" overlapTraveltime="12.13" density="0.46" overlapDensity="0.48" laneDensity="0.46" occupancy="0.23" waitingTime="0.00" timeLoss="8.88" speed="10.75" speedRelative="0.77" departed="0" arrived="0" entered="5" left="5" laneChangedFrom="0" laneChangedTo="0" flow="18.00"/>
        <edge id="-112869294" sampledSeconds="36.61" traveltime="11.82" overlapTraveltime="12.24" density="0.26" overlapDensity="0.26" laneDensity="0.26" occupancy="0.13" waitingTime="0.00" timeLoss="3.52" speed="11.74" speedRelative="0.85" departed="0" arrived="3" entered="3" left="0" laneChangedFrom="0" laneChangedTo="0" flow="10.80"/>
        <edge id="-112869295#0" sampledSeconds="8.46" traveltime="7.58" overlapTraveltime="8.46" density="0.10" overlapDensity="0.12" laneDensity="0.10" occupancy="0.05" waitingTime="0.00" timeLoss="2.02" speed="9.12" speedRelative="0.66" departed="0" arrived="0" entered="1" left="1" laneChangedFrom="0" laneChangedTo="0" flow="3.60"/>
        <edge id="-112869295#1" sampledSeconds="0.00" departed="0" arrived="0" entered="0" left="0" laneChangedFrom="0" laneChangedTo="0"/>
        <edge id="-112869297#0" sampledSeconds="0.00" departed="0" arrived="0" entered="0" left="0" laneChangedFrom="0" laneChangedTo="0"/>
        <edge id="-112869297#1" sampledSeconds="0.00" departed="0" arrived="0" entered="0" left="0" laneChangedFrom="0" laneChangedTo="0"/>
        <edge id="-112869298" sampledSeconds="0.00" departed="0" arrived="0" entered="0" left="0" laneChangedFrom="0" laneChangedTo="0"/>
        <edge id="-112869300" sampledSeconds="0.00" departed="0" arrived="0" entered="0" left="0" laneChangedFrom="0" laneChangedTo="0"/>
        <edge id="-112869301" sampledSeconds="5.93" traveltime="5.59" overlapTraveltime="5.93" density="0.10" overlapDensity="0.10" laneDensity="0.10" occupancy="0.05" waitingTime="0.00" timeLoss="1.70" speed="10.73" speedRelative="0.77" departed="0" arrived="1" entered="1" left="0" laneChangedFrom="0" laneChangedTo="0" flow="3.60"/>
        <edge id="-112869302#0" sampledSeconds="13.69" traveltime="3.04" overlapTraveltime="3.42" density="0.29" overlapDensity="0.33" laneDensity="0.29" occupancy="0.15" waitingTime="0.00" timeLoss="0.68" speed="13.53" speedRelative="0.97" departed="0" arrived="0" entered="4" left="4" laneChangedFrom="0" laneChangedTo="0" flow="14.40"/>
        <edge id="-112869302#1" sampledSeconds="106.57" traveltime="20.83" overlapTraveltime="21.31" density="0.39" overlapDensity="0.40" laneDensity="0.39" occupancy="0.19" waitingTime="0.00" timeLoss="8.34" speed="12.83" speedRelative="0.92" departed="0" arrived="0" entered="5" left="5" laneChangedFrom="0" laneChangedTo="0" flow="18.00"/>
        <edge id="-112869302#2" sampledSeconds="10.27" traveltime="2.23" overlapTraveltime="2.67" density="0.44" overlapDensity="0.51" laneDensity="0.44" occupancy="0.18" waitingTime="0.00" timeLoss="3.06" speed="9.21" speedRelative="0.66" departed="0" arrived="1" entered="4" left="3" laneChangedFrom="0" laneChangedTo="0" flow="14.40"/>
        <edge id="-112869304" sampledSeconds="76.15" traveltime="37.55" overlapTraveltime="39.71" density="0.87" overlapDensity="0.88" laneDensity="0.87" occupancy="0.43" waitingTime="0.00" timeLoss="16.49" speed="2.31" speedRelative="0.83" departed="0" arrived="2" entered="2" left="0" laneChangedFrom="0" laneChangedTo="0" flow="7.20"/>
        <edge id="-112869307" sampledSeconds="0.00" departed="0" arrived="0" entered="0" left="0" laneChangedFrom="0" laneChangedTo="0"/>
        <edge id="-112869309" sampledSeconds="33.87" traveltime="9.96" overlapTraveltime="11.29" density="0.31" overlapDensity="0.35" laneDensity="0.31" occupancy="0.13" waitingTime="0.00" timeLoss="9.47" speed="8.89" speedRelative="0.64" departed="0" arrived="0" entered="3" left="3" laneChangedFrom="0" laneChangedTo="0" flow="10.80"/>
        <edge id="-112869312#0" sampledSeconds="31.88" traveltime="7.71" overlapTraveltime="8.01" density="0.30" overlapDensity="0.31" laneDensity="0.30" occupancy="0.11" waitingTime="0.00" timeLoss="3.14" speed="13.10" speedRelative="0.94" departed="1" arrived="1" entered="3" left="3" laneChangedFrom="0" laneChangedTo="0" flow="14.32"/>
        <edge id="-112869312#1" sampledSeconds="11.46" traveltime="1.24" overlapTraveltime="1.64" density="0.69" overlapDensity="0.91" laneDensity="0.69" occupancy="0.24" waitingTime="0.00" timeLoss="2.32" speed="9.79" speedRelative="0.70" departed="0" arrived="1" entered="7" left="6" laneChangedFrom="0" laneChangedTo="0" flow="25.20"/>
        <edge id="-112869312#2" sampledSeconds="31.59" traveltime="3.24" overlapTraveltime="3.60" density="1.03" overlapDensity="1.14" laneDensity="1.03" occupancy="0.37" waitingTime="0.00" timeLoss="10.96" speed="8.71" speedRelative="0.63" departed="1" arrived="1" entered="8" left="8" laneChangedFrom="0" laneChangedTo="0" flow="31.74"/>
        <edge id="-112869314" sampledSeconds="5.97" traveltime="2.65" overlapTraveltime="3.26" density="0.29" overlapDensity="0.32" laneDensity="0.29" occupancy="0.13" waitingTime="0.00" timeLoss="2.51" speed="7.20" speedRelative="0.52" departed="0" arrived="2" entered="2" left="0" laneChangedFrom="0" laneChangedTo="0" flow="7.20"/>
        <edge id="-112869315" sampledSeconds="65.01" traveltime="8.61" overlapTraveltime="9.29" density="0.64" overlapDensity="0.69" laneDensity="0.64" occupancy="0.27" waitingTime="0.00" timeLoss="14.44" speed="10.57" speedRelative="0.76" departed="0" arrived="1" entered="7" left="6" laneChangedFrom="0" laneChangedTo="0" flow="25.20"/>
        <edge id="-112869316#0" sampledSeconds="14.02" traveltime="4.20" overlapTraveltime="4.90" density="0.37" overlapDensity="0.44" laneDensity="0.37" occupancy="0.20" waitingTime="0.00" timeLoss="5.68" speed="7.57" speedRelative="0.54" departed="1" arrived="0" entered="2" left="3" laneChangedFrom="0" laneChangedTo="0" flow="10.23"/>
        <edge id="-112869316#1" sampledSeconds="7.24" traveltime="3.25" overlapTraveltime="3.62" density="0.18" overlapDensity="0.20" laneDensity="0.18" occupancy="0.09" waitingTime="0.00" timeLoss="1.50" speed="11.37" speedRelative="0.82" departed="0" arrived="0" entered="2" left="2" laneChangedFrom="0" laneChangedTo="0" flow="7.20"/>
        <edge id="-112869316#2" sampledSeconds="1.87" traveltime="1.33" overlapTraveltime="1.87" density="0.14" overlapDensity="0.20" laneDensity="0.14" occupancy="0.06" waitingTime="0.00" timeLoss="0.84" speed="7.68" speedRelative="0.55" departed="0" arrived="0" entered="1" left="1" laneChangedFrom="0" laneChangedTo="0" flow="3.60"/>
        <edge id="-112869318#0" sampledSeconds="14.30" traveltime="6.33" overlapTraveltime="7.16" density="0.21" overlapDensity="0.24" laneDensity="0.21" occupancy="0.08" waitingTime="0.00" timeLoss="3.65" speed="8.87" speedRelative="0.64" departed="0" arrived="1" entered="2" left="1" laneChangedFrom="0" laneChangedTo="0" flow="7.20"/>
        <edge id="-112869318#1" sampledSeconds="6.86" traveltime="1.79" overlapTraveltime="2.30" density="0.46" overlapDensity="0.59" laneDensity="0.46" occupancy="0.15" waitingTime="0.00" timeLoss="2.78" speed="6.47" speedRelative="0.47" departed="0" arrived="0" entered="3" left="3" laneChangedFrom="0" laneChangedTo="0" flow="10.80"/>
        <edge id="-1130788871" sampledSeconds="17.21" traveltime="17.26" overlapTraveltime="18.14" density="0.17" overlapDensity="0.18" laneDensity="0.17" occupancy="0.09" waitingTime="0.00" timeLoss="2.86" speed="5.49" speedRelative="0.99" departed="1" arrived="0" entered="0" left="1" laneChangedFrom="0" laneChangedTo="0" flow="3.41"/>
        <edge id="-1132139278#0" sampledSeconds="57.69" traveltime="5.00" overlapTraveltime="5.75" density="4.28" overlapDensity="4.93" laneDensity="4.28" occupancy="1.65" waitingTime="27.00" timeLoss="46.36" speed="2.71" speedRelative="0.19" departed="0" arrived="0" entered="10" left="9" laneChangedFrom="0" laneChangedTo="0" flow="35.97"/>
        <edge id="-1132139278#1" sampledSeconds="41.06" traveltime="7.91" overlapTraveltime="8.55" density="0.45" overlapDensity="0.48" laneDensity="0.45" occupancy="0.16" waitingTime="0.00" timeLoss="6.10" speed="10.37" speedRelative="0.75" departed="5" arrived="0" entered="0" left="5" laneChangedFrom="0" laneChangedTo="0" flow="17.28"/>
        <edge id="-1132139279" sampledSeconds="117.47" traveltime="22.99" overlapTraveltime="23.87" density="0.36" overlapDensity="0.37" laneDensity="0.36" occupancy="0.18" waitingTime="0.00" timeLoss="7.69" speed="13.55" speedRelative="0.98" departed="5" arrived="0" entered="0" left="5" laneChangedFrom="0" laneChangedTo="0" flow="17.71"/>
        <edge id="-1135514036#0" sampledSeconds="0.00" departed="0" arrived="0" entered="0" left="0" laneChangedFrom="0" laneChangedTo="0"/>
        <edge id="-1135514036#1" sampledSeconds="7.23" traveltime="0.04" overlapTraveltime="1.27" density="1.16" overlapDensity="36.17" laneDensity="1.16" occupancy="0.70" waitingTime="0.00" timeLoss="3.47" speed="3.93" speedRelative="0.14" departed="0" arrived="0" entered="6" left="6" laneChangedFrom="0" laneChangedTo="0" flow="21.60"/>
        <edge id="-1135514036#2" sampledSeconds="0.00" departed="0" arrived="0" entered="0" left="0" laneChangedFrom="0" laneChangedTo="0"/>
        <edge id="-1135514036#3" sampledSeconds="4.17" traveltime="0.04" overlapTraveltime="0.88" density="1.03" overlapDensity="20.84" laneDensity="1.03" occupancy="0.40" waitingTime="0.00" timeLoss="0.84" speed="5.57" speedRelative="0.20" departed="0" arrived="0" entered="5" left="5" laneChangedFrom="0" laneChangedTo="0" flow="18.00"/>
        <edge id="-1135514036#4" sampledSeconds="0.00" departed="0" arrived="0" entered="0" left="0" laneChangedFrom="0" laneChangedTo="0"/>
        <edge id="-1135514036#5" sampledSeconds="0.00" departed="0" arrived="0" entered="0" left="0" laneChangedFrom="0" laneChangedTo="0"/>
        <edge id="-1135514036#6" sampledSeconds="0.00" departed="0" arrived="0" entered="0" left="0" laneChangedFrom="0" laneChangedTo="0"/>
        <edge id="-1135514036#7" sampledSeconds="1.09" traveltime="0.04" overlapTraveltime="1.09" density="0.21" overlapDensity="5.46" laneDensity="0.21" occupancy="0.10" waitingTime="0.00" timeLoss="0.16" speed="4.76" speedRelative="0.17" departed="0" arrived="0" entered="1" left="1" laneChangedFrom="0" laneChangedTo="0" flow="3.60"/>
        <edge id="-1150336838#0" sampledSeconds="0.00" departed="0" arrived="0" entered="0" left="0" laneChangedFrom="0" laneChangedTo="0"/>
        <edge id="-1150336838#1" sampledSeconds="0.00" departed="0" arrived="0" entered="0" left="0" laneChangedFrom="0" laneChangedTo="0"/>
        <edge id="-1150336839#0" sampledSeconds="0.00" departed="0" arrived="0" entered="0" left="0" laneChangedFrom="0" laneChangedTo="0"/>
        <edge id="-1150336839#1" sampledSeconds="0.00" departed="0" arrived="0" entered="0" left="0" laneChangedFrom="0" laneChangedTo="0"/>
        <edge id="-1150336839#2" sampledSeconds="0.00" departed="0" arrived="0" entered="0" left="0" laneChangedFrom="0" laneChangedTo="0"/>
        <edge id="-1150336839#3" sampledSeconds="0.00" departed="0" arrived="0" entered="0" left="0" laneChangedFrom="0" laneChangedTo="0"/>
        <edge id="-1150336840#0" sampledSeconds="0.00" departed="0" arrived="0" entered="0" left="0" laneChangedFrom="0" laneChangedTo="0"/>
        <edge id="-1150336840#1" sampledSeconds="0.00" departed="0" arrived="0" entered="0" left="0" laneChangedFrom="0" laneChangedTo="0"/>
        <edge id="-1150336841" sampledSeconds="0.00" departed="0" arrived="0" entered="0" left="0" laneChangedFrom="0" laneChangedTo="0"/>
        <edge id="-1188049253" sampledSeconds="0.00" departed="0" arrived="0" entered="0" left="0" laneChangedFrom="0" laneChangedTo="0"/>
        <edge id="-1188074697" sampledSeconds="0.00" departed="0" arrived="0" entered="0" left="0" laneChangedFrom="0" laneChangedTo="0"/>
        <edge id="-1188259194" sampledSeconds="0.00" departed="0" arrived="0" entered="0" left="0" laneChangedFrom="0" laneChangedTo="0"/>
        <edge id="-1188259775" sampledSeconds="0.00" departed="0" arrived="0" entered="0" left="0" laneChangedFrom="0" laneChangedTo="0"/>
        <edge id="-1188260427" sampledSeconds="9.07" traveltime="2.06" overlapTraveltime="2.81" density="0.34" overlapDensity="0.49" laneDensity="0.34" occupancy="0.18" waitingTime="0.00" timeLoss="1.34" speed="8.10" speedRelative="0.58" departed="4" arrived="0" entered="0" left="4" laneChangedFrom="0" laneChangedTo="0" flow="10.97"/>
        <edge id="-1188623933" sampledSeconds="0.00" departed="0" arrived="0" entered="0" left="0" laneChangedFrom="0" laneChangedTo="0"/>
        <edge id="-1189109049" sampledSeconds="10.38" traveltime="2.98" overlapTraveltime="3.49" density="0.38" overlapDensity="0.44" laneDensity="0.38" occupancy="0.16" waitingTime="0.00" timeLoss="3.90" speed="7.92" speedRelative="0.57" departed="0" arrived="2" entered="3" left="1" laneChangedFrom="0" laneChangedTo="0" flow="10.80"/>
        <edge id="-1189118669#0" sampledSeconds="21.03" traveltime="10.09" overlapTraveltime="10.62" density="0.17" overlapDensity="0.18" laneDensity="0.17" occupancy="0.06" waitingTime="0.00" timeLoss="3.77" speed="11.44" speedRelative="0.82" departed="1" arrived="0" entered="1" left="2" laneChangedFrom="0" laneChangedTo="0" flow="7.13"/>
        <edge id="-1189118669#1" sampledSeconds="9.86" traveltime="4.57" overlapTraveltime="5.37" density="0.27" overlapDensity="0.32" laneDensity="0.27" occupancy="0.11" waitingTime="0.00" timeLoss="3.41" speed="6.50" speedRelative="0.47" departed="1" arrived="0" entered="1" left="2" laneChangedFrom="0" laneChangedTo="0" flow="6.61"/>
        <edge id="-1189131681" sampledSeconds="0.00" departed="0" arrived="0" entered="0" left="0" laneChangedFrom="0" laneChangedTo="0"/>
        <edge id="-1189355751" sampledSeconds="0.00" departed="0" arrived="0" entered="0" left="0" laneChangedFrom="0" laneChangedTo="0"/>
        <edge id="-1190085873#0" sampledSeconds="1.10" traveltime="0.05" overlapTraveltime="0.84" density="0.51" overlapDensity="5.52" laneDensity="0.51" occupancy="0.10" waitingTime="0.00" timeLoss="0.40" speed="3.81" speedRelative="0.27" departed="0" arrived="1" entered="2" left="1" laneChangedFrom="0" laneChangedTo="0" flow="7.20"/>
        <edge id="-1190085873#1" sampledSeconds="30.37" traveltime="9.49" overlapTraveltime="10.19" density="0.33" overlapDensity="0.35" laneDensity="0.33" occupancy="0.13" waitingTime="0.00" timeLoss="7.87" speed="8.84" speedRelative="0.64" departed="0" arrived="1" entered="3" left="2" laneChangedFrom="0" laneChangedTo="0" flow="10.80"/>
        <edge id="-1190086289" sampledSeconds="0.00" departed="0" arrived="0" entered="0" left="0" laneChangedFrom="0" laneChangedTo="0"/>
        <edge id="-1190086695" sampledSeconds="0.00" departed="0" arrived="0" entered="0" left="0" laneChangedFrom="0" laneChangedTo="0"/>
        <edge id="-1190086696" sampledSeconds="0.00" departed="0" arrived="0" entered="0" left="0" laneChangedFrom="0" laneChangedTo="0"/>
        <edge id="-1190097506#0" sampledSeconds="0.00" departed="0" arrived="0" entered="0" left="0" laneChangedFrom="0" laneChangedTo="0"/>
        <edge id="-1190097506#1" sampledSeconds="0.00" departed="0" arrived="0" entered="0" left="0" laneChangedFrom="0" laneChangedTo="0"/>
        <edge id="-1190097506#3" sampledSeconds="0.00" departed="0" arrived="0" entered="0" left="0" laneChangedFrom="0" laneChangedTo="0"/>
        <edge id="-1190097507" sampledSeconds="0.00" departed="0" arrived="0" entered="0" left="0" laneChangedFrom="0" laneChangedTo="0"/>
        <edge id="-1190097666" sampledSeconds="14.85" traveltime="4.48" overlapTraveltime="5.42" density="0.23" overlapDensity="0.28" laneDensity="0.23" occupancy="0.13" waitingTime="0.00" timeLoss="2.20" speed="10.85" speedRelative="0.78" departed="3" arrived="0" entered="0" left="3" laneChangedFrom="0" laneChangedTo="0" flow="9.78"/>
        <edge id="-1190098983" sampledSeconds="0.00" departed="0" arrived="0" entered="0" left="0" laneChangedFrom="0" laneChangedTo="0"/>
        <edge id="-1190099699" sampledSeconds="0.00" departed="0" arrived="0" entered="0" left="0" laneChangedFrom="0" laneChangedTo="0"/>
        <edge id="-1190100188" sampledSeconds="3.30" traveltime="2.38" overlapTraveltime="3.30" density="0.17" overlapDensity="0.24" laneDensity="0.17" occupancy="0.09" waitingTime="0.00" timeLoss="1.18" speed="5.71" speedRelative="0.41" departed="0" arrived="0" entered="1" left="1" laneChangedFrom="0" laneChangedTo="0" flow="3.60"/>
        <edge id="-1190528061" sampledSeconds="0.00" departed="0" arrived="0" entered="0" left="0" laneChangedFrom="0" laneChangedTo="0"/>
        <edge id="-1221484255" sampledSeconds="109.96" traveltime="35.05" overlapTraveltime="37.42" density="1.56" overlapDensity="1.63" laneDensity="1.56" occupancy="0.77" waitingTime="0.00" timeLoss="26.50" speed="1.94" speedRelative="0.70" departed="0" arrived="1" entered="3" left="2" laneChangedFrom="0" laneChangedTo="0" flow="10.80"/>
        <edge id="-1221484479#0" sampledSeconds="47.09" traveltime="46.99" overlapTraveltime="49.59" density="0.52" overlapDensity="0.52" laneDensity="0.52" occupancy="0.25" waitingTime="0.00" timeLoss="11.27" speed="1.92" speedRelative="0.69" departed="0" arrived="1" entered="1" left="0" laneChangedFrom="0" laneChangedTo="0" flow="3.60"/>
        <edge id="-1221484479#1" sampledSeconds="0.00" departed="0" arrived="0" entered="0" left="0" laneChangedFrom="0" laneChangedTo="0"/>
        <edge id="-1221484692#0" sampledSeconds="6.85" traveltime="1.22" overlapTraveltime="1.97" density="0.51" overlapDensity="0.86" laneDensity="0.51" occupancy="0.27" waitingTime="0.00" timeLoss="3.65" speed="6.42" speedRelative="0.46" departed="1" arrived="0" entered="3" left="4" laneChangedFrom="0" laneChangedTo="0" flow="12.10"/>
        <edge id="-1222667318#0" sampledSeconds="0.00" departed="0" arrived="0" entered="0" left="0" laneChangedFrom="0" laneChangedTo="0"/>
        <edge id="-1222667318#1" sampledSeconds="0.00" departed="0" arrived="0" entered="0" left="0" laneChangedFrom="0" laneChangedTo="0"/>
        <edge id="-1222667319" sampledSeconds="0.00" departed="0" arrived="0" entered="0" left="0" laneChangedFrom="0" laneChangedTo="0"/>
        <edge id="-1225607672" sampledSeconds="0.00" departed="0" arrived="0" entered="0" left="0" laneChangedFrom="0" laneChangedTo="0"/>
        <edge id="-1225609736" sampledSeconds="64.93" traveltime="64.93" overlapTraveltime="66.76" density="0.37" overlapDensity="0.37" laneDensity="0.37" occupancy="0.18" waitingTime="0.00" timeLoss="12.11" speed="2.74" speedRelative="0.98" departed="0" arrived="1" entered="1" left="0" laneChangedFrom="0" laneChangedTo="0" flow="3.60"/>
        <edge id="-1231000664" sampledSeconds="0.00" departed="0" arrived="0" entered="0" left="0" laneChangedFrom="0" laneChangedTo="0"/>
        <edge id="-1231001411" sampledSeconds="0.00" departed="0" arrived="0" entered="0" left="0" laneChangedFrom="0" laneChangedTo="0"/>
        <edge id="-1246776072" sampledSeconds="0.00" departed="0" arrived="0" entered="0" left="0" laneChangedFrom="0" laneChangedTo="0"/>
        <edge id="-1246776637" sampledSeconds="17.53" traveltime="17.18" overlapTraveltime="17.53" density="0.08" overlapDensity="0.08" laneDensity="0.08" occupancy="0.04" waitingTime="0.00" timeLoss="2.63" speed="12.53" speedRelative="0.90" departed="0" arrived="1" entered="1" left="0" laneChangedFrom="0" laneChangedTo="0" flow="3.60"/>
        <edge id="-1246777791" sampledSeconds="0.00" departed="0" arrived="0" entered="0" left="0" laneChangedFrom="0" laneChangedTo="0"/>
        <edge id="-1247545781" sampledSeconds="0.00" departed="0" arrived="0" entered="0" left="0" laneChangedFrom="0" laneChangedTo="0"/>
        <edge id="-1247599303" sampledSeconds="0.00" departed="0" arrived="0" entered="0" left="0" laneChangedFrom="0" laneChangedTo="0"/>
        <edge id="-1248041647" sampledSeconds="0.00" departed="0" arrived="0" entered="0" left="0" laneChangedFrom="0" laneChangedTo="0"/>
        <edge id="-1249346656#0" sampledSeconds="0.00" departed="0" arrived="0" entered="0" left="0" laneChangedFrom="0" laneChangedTo="0"/>
        <edge id="-1249346656#1" sampledSeconds="0.00" departed="0" arrived="0" entered="0" left="0" laneChangedFrom="0" laneChangedTo="0"/>
        <edge id="-1249346657" sampledSeconds="0.00" departed="0" arrived="0" entered="0" left="0" laneChangedFrom="0" laneChangedTo="0"/>
        <edge id="-1249346659" sampledSeconds="0.00" departed="0" arrived="0" entered="0" left="0" laneChangedFrom="0" laneChangedTo="0"/>
        <edge id="-1249455177#0" sampledSeconds="3.99" traveltime="3.64" overlapTraveltime="3.99" density="0.09" overlapDensity="0.09" laneDensity="0.09" occupancy="0.04" waitingTime="0.00" timeLoss="0.69" speed="11.98" speedRelative="0.86" departed="0" arrived="1" entered="1" left="0" laneChangedFrom="0" laneChangedTo="0" flow="3.60"/>
        <edge id="-1249455177#1" sampledSeconds="6.03" traveltime="5.30" overlapTraveltime="6.03" density="0.09" overlapDensity="0.10" laneDensity="0.09" occupancy="0.05" waitingTime="0.00" timeLoss="1.41" speed="10.36" speedRelative="0.75" departed="0" arrived="0" entered="1" left="1" laneChangedFrom="0" laneChangedTo="0" flow="3.60"/>
        <edge id="-1254291557#0" sampledSeconds="20.08" traveltime="9.71" overlapTraveltime="10.04" density="0.16" overlapDensity="0.17" laneDensity="0.16" occupancy="0.08" waitingTime="0.00" timeLoss="3.35" speed="12.58" speedRelative="0.91" departed="0" arrived="2" entered="2" left="0" laneChangedFrom="0" laneChangedTo="0" flow="7.20"/>
        <edge id="-1254291557#2" sampledSeconds="0.00" departed="0" arrived="0" entered="0" left="0" laneChangedFrom="0" laneChangedTo="0"/>
        <edge id="-1254580124" sampledSeconds="0.00" departed="0" arrived="0" entered="0" left="0" laneChangedFrom="0" laneChangedTo="0"/>
        <edge id="-1254580125#0" sampledSeconds="0.00" departed="0" arrived="0" entered="0" left="0" laneChangedFrom="0" laneChangedTo="0"/>
        <edge id="-1254580125#1" sampledSeconds="0.00" departed="0" arrived="0" entered="0" left="0" laneChangedFrom="0" laneChangedTo="0"/>
        <edge id="-1254580126#0" sampledSeconds="0.84" traveltime="0.03" overlapTraveltime="0.84" density="0.16" overlapDensity="4.20" laneDensity="0.16" occupancy="0.08" waitingTime="0.00" timeLoss="0.04" speed="6.18" speedRelative="0.45" departed="0" arrived="0" entered="1" left="1" laneChangedFrom="0" laneChangedTo="0" flow="3.60"/>
        <edge id="-1254580126#1" sampledSeconds="0.00" departed="0" arrived="0" entered="0" left="0" laneChangedFrom="0" laneChangedTo="0"/>
        <edge id="-1254580126#2" sampledSeconds="0.00" departed="0" arrived="0" entered="0" left="0" laneChangedFrom="0" laneChangedTo="0"/>
        <edge id="-1254580127" sampledSeconds="0.00" departed="0" arrived="0" entered="0" left="0" laneChangedFrom="0" laneChangedTo="0"/>
        <edge id="-1254580128" sampledSeconds="19.93" traveltime="9.78" overlapTraveltime="9.97" density="0.18" overlapDensity="0.18" laneDensity="0.18" occupancy="0.04" waitingTime="0.00" timeLoss="2.27" speed="11.39" speedRelative="0.82" departed="0" arrived="2" entered="2" left="0" laneChangedFrom="0" laneChangedTo="0" flow="7.20"/>
        <edge id="-1254580130#0" sampledSeconds="54.70" traveltime="26.69" overlapTraveltime="28.86" density="0.86" overlapDensity="0.88" laneDensity="0.86" occupancy="0.42" waitingTime="0.00" timeLoss="11.77" speed="2.32" speedRelative="0.83" departed="0" arrived="2" entered="2" left="0" laneChangedFrom="0" laneChangedTo="0" flow="7.20"/>
        <edge id="-1268300093" sampledSeconds="169.50" traveltime="2.62" overlapTraveltime="3.65" density="11.05" overlapDensity="15.20" laneDensity="11.05" occupancy="5.27" waitingTime="14.00" timeLoss="103.84" speed="4.31" speedRelative="0.19" departed="0" arrived="0" entered="47" left="47" laneChangedFrom="0" laneChangedTo="0" flow="169.20"/>
        <edge id="-1268592862#0" sampledSeconds="220.66" traveltime="72.94" overlapTraveltime="74.32" density="1.36" overlapDensity="1.38" laneDensity="1.36" occupancy="0.68" waitingTime="0.00" timeLoss="51.67" speed="2.22" speedRelative="0.80" departed="1" arrived="0" entered="2" left="3" laneChangedFrom="0" laneChangedTo="0" flow="10.68"/>