<?xml version="1.0" encoding="UTF-8"?>

<!-- generated on 2026-02-06T15:09:37.719928+05:30 by Eclipse SUMO GUI 1.26.0
<sumoConfiguration xmlns:xsi="http://www.w3.org/2001/XMLSchema-instance" xsi:noNamespaceSchemaLocation="http://sumo.dlr.de/xsd/sumoConfiguration.xsd">

    <input>
        <net-file value="osm.net.xml.gz"/>
        <route-files value="osm.motorcycle.trips.xml,osm.passenger.trips.xml"/>
        <additional-files value="osm.poly.xml.gz,output.add.xml"/>
    </input>

    <output>
        <tripinfo-output value="tripinfos.xml"/>
        <statistic-output value="stats.xml"/>
    </output>

    <processing>
        <ignore-route-errors value="true"/>
        <tls.actuated.jam-threshold value="30"/>
    </processing>

    <routing>
        <device.rerouting.adaptation-steps value="18"/>
        <device.rerouting.adaptation-interval value="10"/>
    </routing>

    <report>
        <verbose value="true"/>
        <duration-log.statistics value="true"/>
        <no-step-log value="true"/>
    </report>

    <traci_server>
        <remote-port value="54956"/>
    </traci_server>

    <gui_only>
        <gui-settings-file value="osm.view.xml"/>
        <start value="true"/>
    </gui_only>

</sumoConfiguration>
-->

<tripinfos xmlns:xsi="http://www.w3.org/2001/XMLSchema-instance" xsi:noNamespaceSchemaLocation="http://sumo.dlr.de/xsd/tripinfo_file.xsd">
    <tripinfo id="motorcycle1" depart="7.00" departLane="-26969661#4_0" departPos="2.30" departSpeed="0.00" departDelay="0.69" arrival="23.00" arrivalLane="-26969661#4_0" arrivalPos="173.75" arrivalSpeed="10.75" duration="16.00" routeLength="171.45" waitingTime="0.00" waitingCount="0" stopTime="0.00" timeLoss="2.10" rerouteNo="1" devices="tripinfo_motorcycle1 routing_motorcycle1" vType="motorcycle_motorcycle" speedFactor="0.94" vaporized=""/>
    <tripinfo id="veh4" depart="9.00" departLane="-30851282#1_0" departPos="5.10" departSpeed="0.00" departDelay="0.59" arrival="62.00" arrivalLane="30175315#3_0" arrivalPos="38.20" arrivalSpeed="15.29" duration="53.00" routeLength="589.04" waitingTime="0.00" waitingCount="0" stopTime="0.00" timeLoss="13.55" rerouteNo="1" devices="tripinfo_veh4 routing_veh4" vType="veh_passenger" speedFactor="1.10" vaporized=""/>
    <tripinfo id="motorcycle0" depart="0.00" departLane="184733110#2_0" departPos="2.30" departSpeed="0.00" departDelay="0.00" arrival="72.00" arrivalLane="-112869312#2_0" arrivalPos="27.69" arrivalSpeed="14.05" duration="72.00" routeLength="1399.48" waitingTime="0.00" waitingCount="0" stopTime="0.00" timeLoss="11.67" rerouteNo="1" devices="tripinfo_motorcycle0 routing_motorcycle0" vType="motorcycle_motorcycle" speedFactor="1.06" vaporized=""/>
    <tripinfo id="veh7" depart="15.00" departLane="1095119365#2_1" departPos="4.51" departSpeed="0.00" departDelay="0.29" arrival="72.00" arrivalLane="1311171177#0_1" arrivalPos="37.97" arrivalSpeed="11.52" duration="57.00" routeLength="940.59" waitingTime="0.00" waitingCount="0" stopTime="0.00" timeLoss="15.56" rerouteNo="1" devices="tripinfo_veh7 routing_veh7" vType="veh_passenger" speedFactor="0.96" vaporized=""/>
    <tripinfo id="veh2" depart="5.00" departLane="-995150186_0" departPos="5.10" departSpeed="0.00" departDelay="0.80" arrival="76.00" arrivalLane="1313717943_0" arrivalPos="7.24" arrivalSpeed="26.27" duration="71.00" routeLength="1246.01" waitingTime="0.00" waitingCount="0" stopTime="0.00" timeLoss="12.50" rerouteNo="1" devices="tripinfo_veh2 routing_veh2" vType="veh_passenger" speedFactor="0.97" vaporized=""/>
    <tripinfo id="motorcycle5" depart="32.00" departLane="-23970107#2_0" departPos="2.30" departSpeed="0.00" departDelay="0.47" arrival="94.00" arrivalLane="184733112#2_0" arrivalPos="103.75" arrivalSpeed="11.87" duration="62.00" routeLength="550.66" waitingTime="0.00" waitingCount="0" stopTime="0.00" timeLoss="14.00" rerouteNo="1" devices="tripinfo_motorcycle5 routing_motorcycle5" vType="motorcycle_motorcycle" speedFactor="0.89" vaporized=""/>
    <tripinfo id="veh6" depart="13.00" departLane="-30851282#8_0" departPos="5.10" departSpeed="0.00" departDelay="0.39" arrival="97.00" arrivalLane="-184733113#0_0" arrivalPos="37.50" arrivalSpeed="13.92" duration="84.00" routeLength="1018.89" waitingTime="0.00" waitingCount="0" stopTime="0.00" timeLoss="20.25" rerouteNo="1" devices="tripinfo_veh6 routing_veh6" vType="veh_passenger" speedFactor="1.03" vaporized=""/>
    <tripinfo id="veh24" depart="51.00" departLane="23970132#3_0" departPos="5.10" departSpeed="0.00" departDelay="0.56" arrival="100.00" arrivalLane="51352044#1_0" arrivalPos="52.59" arrivalSpeed="13.22" duration="49.00" routeLength="516.91" waitingTime="0.00" waitingCount="0" stopTime="0.00" timeLoss="10.31" rerouteNo="1" devices="tripinfo_veh24 routing_veh24" vType="veh_passenger" speedFactor="1.02" vaporized=""/>
    <tripinfo id="veh17" depart="36.00" departLane="30851288#0_0" departPos="5.10" departSpeed="16.24" departDelay="0.27" arrival="111.00" arrivalLane="-392958817#0_0" arrivalPos="157.75" arrivalSpeed="15.16" duration="75.00" routeLength="1106.74" waitingTime="0.00" waitingCount="0" stopTime="0.00" timeLoss="18.05" rerouteNo="1" devices="tripinfo_veh17 routing_veh17" vType="veh_passenger" speedFactor="1.17" vaporized=""/>
    <tripinfo id="veh22" depart="47.00" departLane="701211960_0" departPos="5.10" departSpeed="12.49" departDelay="0.76" arrival="120.00" arrivalLane="1456827483_0" arrivalPos="23.83" arrivalSpeed="11.52" duration="73.00" routeLength="849.01" waitingTime="0.00" waitingCount="0" stopTime="0.00" timeLoss="16.46" rerouteNo="1" devices="tripinfo_veh22 routing_veh22" vType="veh_passenger" speedFactor="0.90" vaporized=""/>
    <tripinfo id="motorcycle9" depart="57.00" departLane="-176318929_0" departPos="2.30" departSpeed="0.00" departDelay="0.25" arrival="124.00" arrivalLane="-184733113#2_0" arrivalPos="13.89" arrivalSpeed="11.38" duration="67.00" routeLength="998.67" waitingTime="0.00" waitingCount="0" stopTime="0.00" timeLoss="16.33" rerouteNo="1" devices="tripinfo_motorcycle9 routing_motorcycle9" vType="motorcycle_motorcycle" speedFactor="1.03" vaporized=""/>
    <tripinfo id="veh9" depart="19.00" departLane="1051000494#3_0" departPos="5.10" departSpeed="0.00" departDelay="0.08" arrival="134.00" arrivalLane="178751036#3_0" arrivalPos="103.36" arrivalSpeed="22.41" duration="115.00" routeLength="2078.19" waitingTime="0.00" waitingCount="0" stopTime="0.00" timeLoss="28.20" rerouteNo="1" devices="tripinfo_veh9 routing_veh9" vType="veh_passenger" speedFactor="1.04" vaporized=""/>
    <tripinfo id="motorcycle2" depart="13.00" departLane="30851282#10_0" departPos="2.30" departSpeed="0.00" departDelay="0.39" arrival="137.00" arrivalLane="-184733105_0" arrivalPos="109.87" arrivalSpeed="13.44" duration="124.00" routeLength="1804.03" waitingTime="0.00" waitingCount="0" stopTime="0.00" timeLoss="26.15" rerouteNo="1" devices="tripinfo_motorcycle2 routing_motorcycle2" vType="motorcycle_motorcycle" speedFactor="1.03" vaporized=""/>
    <tripinfo id="veh16" depart="34.00" departLane="1311171177#0_0" departPos="5.10" departSpeed="0.00" departDelay="0.37" arrival="140.00" arrivalLane="26969666#1_0" arrivalPos="186.05" arrivalSpeed="11.09" duration="106.00" routeLength="1100.77" waitingTime="0.00" waitingCount="0" stopTime="0.00" timeLoss="19.54" rerouteNo="1" devices="tripinfo_veh16 routing_veh16" vType="veh_passenger" speedFactor="0.85" vaporized=""/>
    <tripinfo id="motorcycle3" depart="19.00" departLane="-30853104#1_0" departPos="2.30" departSpeed="0.00" departDelay="0.08" arrival="144.00" arrivalLane="-112869318#0_0" arrivalPos="59.83" arrivalSpeed="9.22" duration="125.00" routeLength="1918.57" waitingTime="0.00" waitingCount="0" stopTime="0.00" timeLoss="20.25" rerouteNo="1" devices="tripinfo_motorcycle3 routing_motorcycle3" vType="motorcycle_motorcycle" speedFactor="0.83" vaporized=""/>
    <tripinfo id="veh15" depart="32.00" departLane="178751036#0_1" departPos="5.10" departSpeed="0.00" departDelay="0.47" arrival="146.00" arrivalLane="-184733111#2_0" arrivalPos="79.81" arrivalSpeed="11.50" duration="114.00" routeLength="1365.19" waitingTime="0.00" waitingCount="0" stopTime="0.00" timeLoss="26.81" rerouteNo="1" devices="tripinfo_veh15 routing_veh15" vType="veh_passenger" speedFactor="0.85" vaporized=""/>
    <tripinfo id="veh12" depart="26.00" departLane="26969680#0_0" departPos="5.10" departSpeed="0.00" departDelay="0.78" arrival="147.00" arrivalLane="-30851300#8_0" arrivalPos="51.08" arrivalSpeed="13.44" duration="121.00" routeLength="1572.25" waitingTime="0.00" waitingCount="0" stopTime="0.00" timeLoss="29.60" rerouteNo="1" devices="tripinfo_veh12 routing_veh12" vType="veh_passenger" speedFactor="1.00" vaporized=""/>
    <tripinfo id="motorcycle13" depart="82.00" departLane="-1433959913#0_0" departPos="2.30" departSpeed="0.00" departDelay="0.03" arrival="157.00" arrivalLane="-26969665#5_0" arrivalPos="24.43" arrivalSpeed="10.08" duration="75.00" routeLength="872.42" waitingTime="0.00" waitingCount="0" stopTime="0.00" timeLoss="16.85" rerouteNo="1" devices="tripinfo_motorcycle13 routing_motorcycle13" vType="motorcycle_motorcycle" speedFactor="0.93" vaporized=""/>
    <tripinfo id="veh1" depart="3.00" departLane="176318925#4_0" departPos="5.10" departSpeed="0.00" departDelay="0.90" arrival="159.00" arrivalLane="26969670#4_0" arrivalPos="15.75" arrivalSpeed="9.75" duration="156.00" routeLength="2616.80" waitingTime="0.00" waitingCount="0" stopTime="0.00" timeLoss="49.33" rerouteNo="1" devices="tripinfo_veh1 routing_veh1" vType="veh_passenger" speedFactor="1.08" vaporized=""/>
    <tripinfo id="motorcycle4" depart="26.00" departLane="-1189118669#0_0" departPos="2.30" departSpeed="0.00" departDelay="0.78" arrival="159.00" arrivalLane="-24240031#1_0" arrivalPos="156.30" arrivalSpeed="14.10" duration="133.00" routeLength="1941.21" waitingTime="3.00" waitingCount="1" stopTime="0.00" timeLoss="29.65" rerouteNo="1" devices="tripinfo_motorcycle4 routing_motorcycle4" vType="motorcycle_motorcycle" speedFactor="1.05" vaporized=""/>
    <tripinfo id="veh36" depart="76.00" departLane="-28163106#2_0" departPos="5.10" departSpeed="0.00" departDelay="0.33" arrival="162.00" arrivalLane="23306352#7_0" arrivalPos="0.26" arrivalSpeed="27.41" duration="86.00" routeLength="1456.45" waitingTime="0.00" waitingCount="0" stopTime="0.00" timeLoss="23.19" rerouteNo="1" devices="tripinfo_veh36 routing_veh36" vType="veh_passenger" speedFactor="1.02" vaporized=""/>
    <tripinfo id="veh23" depart="49.00" departLane="-184733109#0_0" departPos="5.10" departSpeed="0.00" departDelay="0.66" arrival="165.00" arrivalLane="1311171176#4_1" arrivalPos="38.71" arrivalSpeed="15.69" duration="116.00" routeLength="1982.88" waitingTime="0.00" waitingCount="0" stopTime="0.00" timeLoss="34.72" rerouteNo="1" devices="tripinfo_veh23 routing_veh23" vType="veh_passenger" speedFactor="1.14" vaporized=""/>
    <tripinfo id="motorcycle15" depart="95.00" departLane="184733105_0" departPos="2.30" departSpeed="0.00" departDelay="0.42" arrival="167.00" arrivalLane="-30853104#0_0" arrivalPos="55.25" arrivalSpeed="11.30" duration="72.00" routeLength="696.52" waitingTime="0.00" waitingCount="0" stopTime="0.00" timeLoss="16.46" rerouteNo="1" devices="tripinfo_motorcycle15 routing_motorcycle15" vType="motorcycle_motorcycle" speedFactor="0.94" vaporized=""/>
    <tripinfo id="motorcycle12" depart="76.00" departLane="-23970118#2_0" departPos="2.30" departSpeed="0.00" departDelay="0.33" arrival="168.00" arrivalLane="-297308488#2_0" arrivalPos="55.40" arrivalSpeed="13.02" duration="92.00" routeLength="1215.41" waitingTime="8.00" waitingCount="1" stopTime="0.00" timeLoss="31.75" rerouteNo="1" devices="tripinfo_motorcycle12 routing_motorcycle12" vType="motorcycle_motorcycle" speedFactor="0.99" vaporized=""/>
    <tripinfo id="veh3" depart="7.00" departLane="-1132139279_0" departPos="5.10" departSpeed="16.39" departDelay="0.69" arrival="171.00" arrivalLane="1189355137_0" arrivalPos="342.82" arrivalSpeed="15.88" duration="164.00" routeLength="2465.06" waitingTime="0.00" waitingCount="0" stopTime="0.00" timeLoss="34.31" rerouteNo="1" devices="tripinfo_veh3 routing_veh3" vType="veh_passenger" speedFactor="1.18" vaporized=""/>
    <tripinfo id="veh8" depart="17.00" departLane="23970116#1_0" departPos="5.10" departSpeed="0.00" departDelay="0.19" arrival="173.00" arrivalLane="207260566#4_0" arrivalPos="27.45" arrivalSpeed="10.66" duration="156.00" routeLength="3066.16" waitingTime="0.00" waitingCount="0" stopTime="0.00" timeLoss="33.96" rerouteNo="1" devices="tripinfo_veh8 routing_veh8" vType="veh_passenger" speedFactor="1.09" vaporized=""/>
    <tripinfo id="veh5" depart="11.00" departLane="-34690651#3_0" departPos="5.10" departSpeed="0.00" departDelay="0.49" arrival="174.00" arrivalLane="-23970151#2_0" arrivalPos="38.59" arrivalSpeed="11.54" duration="163.00" routeLength="2352.72" waitingTime="0.00" waitingCount="0" stopTime="0.00" timeLoss="33.99" rerouteNo="1" devices="tripinfo_veh5 routing_veh5" vType="veh_passenger" speedFactor="0.90" vaporized=""/>
    <tripinfo id="motorcycle6" depart="38.00" departLane="26969670#1_0" departPos="2.30" departSpeed="0.00" departDelay="0.17" arrival="177.00" arrivalLane="-112869288_0" arrivalPos="60.35" arrivalSpeed="12.44" duration="139.00" routeLength="1641.17" waitingTime="4.00" waitingCount="1" stopTime="0.00" timeLoss="32.54" rerouteNo="1" devices="tripinfo_motorcycle6 routing_motorcycle6" vType="motorcycle_motorcycle" speedFactor="0.94" vaporized=""/>
    <tripinfo id="veh29" depart="62.00" departLane="-207270070_0" departPos="5.10" departSpeed="0.00" departDelay="1.05" arrival="177.00" arrivalLane="26969681#1_0" arrivalPos="40.31" arrivalSpeed="13.06" duration="115.00" routeLength="1472.39" waitingTime="0.00" waitingCount="0" stopTime="0.00" timeLoss="31.21" rerouteNo="1" devices="tripinfo_veh29 routing_veh29" vType="veh_passenger" speedFactor="0.99" vaporized=""/>
    <tripinfo id="motorcycle8" depart="51.00" departLane="-28350257#3_0" departPos="2.30" departSpeed="0.00" departDelay="0.56" arrival="178.00" arrivalLane="-23306321#13_0" arrivalPos="0.20" arrivalSpeed="4.55" duration="127.00" routeLength="2317.36" waitingTime="0.00" waitingCount="0" stopTime="0.00" timeLoss="27.02" rerouteNo="1" devices="tripinfo_motorcycle8 routing_motorcycle8" vType="motorcycle_motorcycle" speedFactor="1.09" vaporized=""/>
    <tripinfo id="motorcycle14" depart="89.00" departLane="-184733109#0_0" departPos="2.30" departSpeed="0.00" departDelay="0.72" arrival="180.00" arrivalLane="-28163106#2_0" arrivalPos="66.82" arrivalSpeed="10.25" duration="91.00" routeLength="974.29" waitingTime="0.00" waitingCount="0" stopTime="0.00" timeLoss="20.75" rerouteNo="1" devices="tripinfo_motorcycle14 routing_motorcycle14" vType="motorcycle_motorcycle" speedFactor="0.88" vaporized=""/>
    <tripinfo id="veh35" depart="74.00" departLane="30851297#1_0" departPos="5.10" departSpeed="0.00" departDelay="0.44" arrival="184.00" arrivalLane="30851600#1_0" arrivalPos="167.74" arrivalSpeed="13.07" duration="110.00" routeLength="1023.77" waitingTime="0.00" waitingCount="0" stopTime="0.00" timeLoss="15.55" rerouteNo="1" devices="tripinfo_veh35 routing_veh35" vType="veh_passenger" speedFactor="1.02" vaporized=""/>
    <tripinfo id="veh41" depart="87.00" departLane="-23306321#23_0" departPos="0.20" departSpeed="0.00" departDelay="0.82" arrival="186.00" arrivalLane="34690651#6_0" arrivalPos="41.99" arrivalSpeed="14.66" duration="99.00" routeLength="972.30" waitingTime="3.00" waitingCount="1" stopTime="0.00" timeLoss="32.22" rerouteNo="1" devices="tripinfo_veh41 routing_veh41" vType="veh_passenger" speedFactor="0.98" vaporized=""/>
    <tripinfo id="motorcycle17" depart="108.00" departLane="-218191054_0" departPos="2.30" departSpeed="16.09" departDelay="0.81" arrival="188.00" arrivalLane="-34690582#3_0" arrivalPos="47.01" arrivalSpeed="16.04" duration="80.00" routeLength="1074.58" waitingTime="0.00" waitingCount="0" stopTime="0.00" timeLoss="12.28" rerouteNo="1" devices="tripinfo_motorcycle17 routing_motorcycle17" vType="motorcycle_motorcycle" speedFactor="1.16" vaporized=""/>
    <tripinfo id="veh27" depart="57.00" departLane="-1381375107_0" departPos="5.10" departSpeed="9.95" departDelay="0.25" arrival="189.00" arrivalLane="-218191035#0_0" arrivalPos="227.67" arrivalSpeed="14.84" duration="132.00" routeLength="2066.11" waitingTime="0.00" waitingCount="0" stopTime="0.00" timeLoss="33.23" rerouteNo="1" devices="tripinfo_veh27 routing_veh27" vType="veh_passenger" speedFactor="1.12" vaporized=""/>
    <tripinfo id="veh39" depart="83.00" departLane="28350257#1_0" departPos="5.10" departSpeed="0.00" departDelay="1.03" arrival="195.00" arrivalLane="1051000493#2_0" arrivalPos="242.45" arrivalSpeed="28.38" duration="112.00" routeLength="1512.73" waitingTime="10.00" waitingCount="1" stopTime="0.00" timeLoss="36.84" rerouteNo="1" devices="tripinfo_veh39 routing_veh39" vType="veh_passenger" speedFactor="1.06" vaporized=""/>
    <tripinfo id="veh45" depart="95.00" departLane="-218191059#2_0" departPos="5.10" departSpeed="0.00" departDelay="0.42" arrival="197.00" arrivalLane="-24240028#1_0" arrivalPos="39.65" arrivalSpeed="23.07" duration="102.00" routeLength="1561.58" waitingTime="0.00" waitingCount="0" stopTime="0.00" timeLoss="33.15" rerouteNo="1" devices="tripinfo_veh45 routing_veh45" vType="veh_passenger" speedFactor="1.09" vaporized=""/>
    <tripinfo id="veh30" depart="64.00" departLane="-178751024#0_0" departPos="5.10" departSpeed="0.00" departDelay="0.94" arrival="205.00" arrivalLane="1433959551#3_0" arrivalPos="24.32" arrivalSpeed="10.68" duration="141.00" routeLength="2077.03" waitingTime="0.00" waitingCount="0" stopTime="0.00" timeLoss="32.15" rerouteNo="1" devices="tripinfo_veh30 routing_veh30" vType="veh_passenger" speedFactor="0.94" vaporized=""/>
    <tripinfo id="veh58" depart="122.00" departLane="1311171177#0_0" departPos="5.10" departSpeed="0.00" departDelay="0.09" arrival="205.00" arrivalLane="-26969662#0_0" arrivalPos="58.46" arrivalSpeed="10.54" duration="83.00" routeLength="1082.99" waitingTime="0.00" waitingCount="0" stopTime="0.00" timeLoss="18.85" rerouteNo="1" devices="tripinfo_veh58 routing_veh58" vType="veh_passenger" speedFactor="0.83" vaporized=""/>
    <tripinfo id="motorcycle18" depart="114.00" departLane="845727138#1_0" departPos="2.30" departSpeed="0.00" departDelay="0.50" arrival="206.00" arrivalLane="217760883_0" arrivalPos="178.15" arrivalSpeed="12.65" duration="92.00" routeLength="1107.97" waitingTime="0.00" waitingCount="0" stopTime="0.00" timeLoss="24.44" rerouteNo="1" devices="tripinfo_motorcycle18 routing_motorcycle18" vType="motorcycle_motorcycle" speedFactor="1.02" vaporized=""/>
    <tripinfo id="veh20" depart="43.00" departLane="1254580128_0" departPos="5.10" departSpeed="0.00" departDelay="0.96" arrival="206.00" arrivalLane="102479334#0_1" arrivalPos="0.20" arrivalSpeed="27.30" duration="163.00" routeLength="2005.98" waitingTime="27.00" waitingCount="2" stopTime="0.00" timeLoss="66.61" rerouteNo="1" devices="tripinfo_veh20 routing_veh20" vType="veh_passenger" speedFactor="1.00" vaporized=""/>
    <tripinfo id="motorcycle26" depart="164.00" departLane="-184733113#1_0" departPos="2.30" departSpeed="0.00" departDelay="0.06" arrival="207.00" arrivalLane="207270070_0" arrivalPos="94.13" arrivalSpeed="14.32" duration="43.00" routeLength="490.55" waitingTime="0.00" waitingCount="0" stopTime="0.00" timeLoss="9.84" rerouteNo="1" devices="tripinfo_motorcycle26 routing_motorcycle26" vType="motorcycle_motorcycle" speedFactor="1.13" vaporized=""/>
    <tripinfo id="veh69" depart="146.00" departLane="176318925#1_0" departPos="5.10" departSpeed="0.00" departDelay="0.97" arrival="207.00" arrivalLane="-30851600#0_0" arrivalPos="47.79" arrivalSpeed="12.79" duration="61.00" routeLength="678.04" waitingTime="0.00" waitingCount="0" stopTime="0.00" timeLoss="14.60" rerouteNo="1" devices="tripinfo_veh69 routing_veh69" vType="veh_passenger" speedFactor="0.95" vaporized=""/>
    <tripinfo id="veh10" depart="22.00" departLane="-30851283#0_0" departPos="5.10" departSpeed="0.00" departDelay="0.98" arrival="208.00" arrivalLane="-1249455177#0_0" arrivalPos="42.76" arrivalSpeed="14.46" duration="186.00" routeLength="2826.19" waitingTime="2.00" waitingCount="1" stopTime="0.00" timeLoss="53.36" rerouteNo="1" devices="tripinfo_veh10 routing_veh10" vType="veh_passenger" speedFactor="1.04" vaporized=""/>
    <tripinfo id="veh49" depart="103.00" departLane="-218191060#1_0" departPos="5.10" departSpeed="0.00" departDelay="0.01" arrival="208.00" arrivalLane="-26969671#1_0" arrivalPos="42.43" arrivalSpeed="12.25" duration="105.00" routeLength="1362.59" waitingTime="0.00" waitingCount="0" stopTime="0.00" timeLoss="24.65" rerouteNo="1" devices="tripinfo_veh49 routing_veh49" vType="veh_passenger" speedFactor="0.97" vaporized=""/>
    <tripinfo id="motorcycle16" depart="101.00" departLane="-26748474#6_0" departPos="2.30" departSpeed="0.00" departDelay="0.11" arrival="210.00" arrivalLane="34690559#1_0" arrivalPos="237.57" arrivalSpeed="25.01" duration="109.00" routeLength="1876.55" waitingTime="0.00" waitingCount="0" stopTime="0.00" timeLoss="24.33" rerouteNo="1" devices="tripinfo_motorcycle16 routing_motorcycle16" vType="motorcycle_motorcycle" speedFactor="0.94" vaporized=""/>
    <tripinfo id="veh48" depart="101.00" departLane="51352043#0_0" departPos="5.10" departSpeed="0.00" departDelay="0.11" arrival="217.00" arrivalLane="-26969676#0_0" arrivalPos="108.53" arrivalSpeed="13.77" duration="116.00" routeLength="1568.09" waitingTime="0.00" waitingCount="0" stopTime="0.00" timeLoss="27.44" rerouteNo="1" devices="tripinfo_veh48 routing_veh48" vType="veh_passenger" speedFactor="1.02" vaporized=""/>
    <tripinfo id="veh52" depart="110.00" departLane="1095119365#0_0" departPos="5.10" departSpeed="0.00" departDelay="0.70" arrival="218.00" arrivalLane="30853116#1_0" arrivalPos="54.04" arrivalSpeed="13.15" duration="108.00" routeLength="1534.52" waitingTime="0.00" waitingCount="0" stopTime="0.00" timeLoss="26.48" rerouteNo="1" devices="tripinfo_veh52 routing_veh52" vType="veh_passenger" speedFactor="1.00" vaporized=""/>
    <tripinfo id="veh37" depart="78.00" departLane="1051000493#0_0" departPos="5.10" departSpeed="0.00" departDelay="0.23" arrival="220.00" arrivalLane="34690651#8_0" arrivalPos="60.56" arrivalSpeed="14.98" duration="142.00" routeLength="1860.80" waitingTime="2.00" waitingCount="1" stopTime="0.00" timeLoss="42.43" rerouteNo="1" devices="tripinfo_veh37 routing_veh37" vType="veh_passenger" speedFactor="0.97" vaporized=""/>
    <tripinfo id="veh62" depart="131.00" departLane="1190085873#1_0" departPos="5.10" departSpeed="0.00" departDelay="0.69" arrival="223.00" arrivalLane="23306330_0" arrivalPos="74.40" arrivalSpeed="13.73" duration="92.00" routeLength="1322.30" waitingTime="0.00" waitingCount="0" stopTime="0.00" timeLoss="17.59" rerouteNo="1" devices="tripinfo_veh62 routing_veh62" vType="veh_passenger" speedFactor="1.01" vaporized=""/>
    <tripinfo id="veh14" depart="30.00" departLane="-176318926_0" departPos="5.10" departSpeed="0.00" departDelay="0.57" arrival="224.00" arrivalLane="30741445_1" arrivalPos="2.34" arrivalSpeed="11.99" duration="194.00" routeLength="1710.40" waitingTime="38.00" waitingCount="2" stopTime="0.00" timeLoss="79.85" rerouteNo="1" devices="tripinfo_veh14 routing_veh14" vType="veh_passenger" speedFactor="0.88" vaporized=""/>
    <tripinfo id="motorcycle25" depart="158.00" departLane="-30851300#6_0" departPos="2.30" departSpeed="0.00" departDelay="0.36" arrival="226.00" arrivalLane="-26748474#8_0" arrivalPos="8.04" arrivalSpeed="9.00" duration="68.00" routeLength="609.29" waitingTime="0.00" waitingCount="0" stopTime="0.00" timeLoss="17.78" rerouteNo="1" devices="tripinfo_motorcycle25 routing_motorcycle25" vType="motorcycle_motorcycle" speedFactor="0.95" vaporized=""/>
    <tripinfo id="veh44" depart="93.00" departLane="-26969701#0_0" departPos="5.10" departSpeed="0.00" departDelay="0.52" arrival="227.00" arrivalLane="-995150185_0" arrivalPos="47.71" arrivalSpeed="13.62" duration="134.00" routeLength="1792.16" waitingTime="9.00" waitingCount="1" stopTime="0.00" timeLoss="37.52" rerouteNo="1" devices="tripinfo_veh44 routing_veh44" vType="veh_passenger" speedFactor="1.01" vaporized=""/>
    <tripinfo id="veh13" depart="28.00" departLane="30776979#2_0" departPos="5.10" departSpeed="0.00" departDelay="0.68" arrival="229.00" arrivalLane="1370773101#6_1" arrivalPos="58.89" arrivalSpeed="24.15" duration="201.00" routeLength="2620.99" waitingTime="32.00" waitingCount="1" stopTime="0.00" timeLoss="71.36" rerouteNo="1" devices="tripinfo_veh13 routing_veh13" vType="veh_passenger" speedFactor="0.90" vaporized=""/>
    <tripinfo id="motorcycle10" depart="64.00" departLane="26969683_0" departPos="2.30" departSpeed="0.00" departDelay="0.94" arrival="230.00" arrivalLane="207264558_0" arrivalPos="49.79" arrivalSpeed="14.18" duration="166.00" routeLength="2332.83" waitingTime="5.00" waitingCount="1" stopTime="0.00" timeLoss="42.95" rerouteNo="1" devices="tripinfo_motorcycle10 routing_motorcycle10" vType="motorcycle_motorcycle" speedFactor="1.05" vaporized=""/>
    <tripinfo id="veh70" depart="150.00" departLane="102479334#1_0" departPos="5.10" departSpeed="0.00" departDelay="2.87" arrival="230.00" arrivalLane="1248041647_0" arrivalPos="22.84" arrivalSpeed="10.94" duration="80.00" routeLength="994.18" waitingTime="0.00" waitingCount="0" stopTime="0.00" timeLoss="20.94" rerouteNo="1" devices="tripinfo_veh70 routing_veh70" vType="veh_passenger" speedFactor="0.89" vaporized=""/>
    <tripinfo id="veh76" depart="160.00" departLane="-176318932#0_0" departPos="5.10" departSpeed="0.00" departDelay="0.26" arrival="232.00" arrivalLane="30851300#6_0" arrivalPos="76.19" arrivalSpeed="12.28" duration="72.00" routeLength="753.95" waitingTime="0.00" waitingCount="0" stopTime="0.00" timeLoss="11.14" rerouteNo="1" devices="tripinfo_veh76 routing_veh76" vType="veh_passenger" speedFactor="0.93" vaporized=""/>
    <tripinfo id="motorcycle21" depart="133.00" departLane="-23970122_0" departPos="2.30" departSpeed="0.00" departDelay="0.58" arrival="237.00" arrivalLane="-1189109049_0" arrivalPos="23.35" arrivalSpeed="11.91" duration="104.00" routeLength="1299.98" waitingTime="0.00" waitingCount="0" stopTime="0.00" timeLoss="22.59" rerouteNo="1" devices="tripinfo_motorcycle21 routing_motorcycle21" vType="motorcycle_motorcycle" speedFactor="0.89" vaporized=""/>
    <tripinfo id="veh53" depart="112.00" departLane="297308438#0_0" departPos="5.10" departSpeed="0.00" departDelay="0.60" arrival="237.00" arrivalLane="51352042#0_0" arrivalPos="183.17" arrivalSpeed="14.31" duration="125.00" routeLength="1494.14" waitingTime="3.00" waitingCount="1" stopTime="0.00" timeLoss="36.15" rerouteNo="1" devices="tripinfo_veh53 routing_veh53" vType="veh_passenger" speedFactor="1.04" vaporized=""/>
    <tripinfo id="motorcycle22" depart="139.00" departLane="-26969685#1_0" departPos="2.30" departSpeed="11.47" departDelay="0.28" arrival="238.00" arrivalLane="-26969946#1_0" arrivalPos="32.88" arrivalSpeed="8.86" duration="99.00" routeLength="903.85" waitingTime="0.00" waitingCount="0" stopTime="0.00" timeLoss="15.74" rerouteNo="1" devices="tripinfo_motorcycle22 routing_motorcycle22" vType="motorcycle_motorcycle" speedFactor="0.83" vaporized=""/>
    <tripinfo id="veh11" depart="24.00" departLane="-1284852225#0_0" departPos="5.10" departSpeed="0.00" departDelay="0.88" arrival="241.00" arrivalLane="393560241_0" arrivalPos="751.97" arrivalSpeed="23.58" duration="217.00" routeLength="3809.79" waitingTime="21.00" waitingCount="1" stopTime="0.00" timeLoss="66.01" rerouteNo="1" devices="tripinfo_veh11 routing_veh11" vType="veh_passenger" speedFactor="1.09" vaporized=""/>
    <tripinfo id="veh59" depart="125.00" departLane="-34551847_0" departPos="5.10" departSpeed="12.80" departDelay="0.99" arrival="242.00" arrivalLane="-112869293#0_0" arrivalPos="138.80" arrivalSpeed="11.68" duration="117.00" routeLength="1549.08" waitingTime="0.00" waitingCount="0" stopTime="0.00" timeLoss="20.83" rerouteNo="1" devices="tripinfo_veh59 routing_veh59" vType="veh_passenger" speedFactor="0.92" vaporized=""/>
    <tripinfo id="veh71" depart="150.00" departLane="30851600#0_0" departPos="5.10" departSpeed="14.90" departDelay="0.77" arrival="242.00" arrivalLane="24240034#3_0" arrivalPos="136.02" arrivalSpeed="14.64" duration="92.00" routeLength="1227.10" waitingTime="1.00" waitingCount="1" stopTime="0.00" timeLoss="28.01" rerouteNo="1" devices="tripinfo_veh71 routing_veh71" vType="veh_passenger" speedFactor="1.07" vaporized=""/>
    <tripinfo id="motorcycle19" depart="120.00" departLane="1254580128_0" departPos="2.30" departSpeed="0.00" departDelay="0.20" arrival="246.00" arrivalLane="23306324_0" arrivalPos="132.97" arrivalSpeed="12.98" duration="126.00" routeLength="1391.89" waitingTime="13.00" waitingCount="1" stopTime="0.00" timeLoss="44.50" rerouteNo="1" devices="tripinfo_motorcycle19 routing_motorcycle19" vType="motorcycle_motorcycle" speedFactor="1.01" vaporized=""/>
    <tripinfo id="veh19" depart="40.00" departLane="23970132#6_0" departPos="5.10" departSpeed="0.00" departDelay="0.07" arrival="246.00" arrivalLane="-1254291557#0_0" arrivalPos="121.31" arrivalSpeed="15.15" duration="206.00" routeLength="3160.54" waitingTime="0.00" waitingCount="0" stopTime="0.00" timeLoss="52.95" rerouteNo="1" devices="tripinfo_veh19 routing_veh19" vType="veh_passenger" speedFactor="1.10" vaporized=""/>